2
Lattice="2.8186357315284174 0.0 0.0 0.0 2.8186357315284174 0.0 0.0 0.1959273402867757 4.064092262967999" Properties=species:S:1:pos:R:3:force:R:3:tags:I:1 config_type=FLD_TiAl spacegroup="P 1" virial="-1.0696886978596598 -0.16062286865143607 0.016569265811644467 -0.16062286865143607 -1.1667823102111092 -0.9674545604188343 0.016569265811644467 -0.9674545604188343 -0.5100377080582726" energy=-1704.11520872 unit_cell=conventional n_minim_iter=2 pbc="T T T"
Ti       1.47692848       1.36039173       1.98890986      -0.62068000       0.77833000      -0.12333000        0
Al      -0.07703613       0.04783871      -0.03196409       0.62068000      -0.77833000       0.12333000        1
